
Host: psinet

Timers On : Sat Jun  9 23:26:33 2018
Timers Off: Sat Jun  9 23:26:34 2018

Wall Time:        0.45 seconds


-----------------------------------------------------------

***********************************************************
